5
Random frame t=   0.00000 step= 1
C          0.00000        2.63000       15.11000
C          9.17000       10.66000        4.38000
C          0.94000       13.58000       13.59000
C         18.69000        7.67000       10.39000
C         16.62000        0.69000        1.07000
5
Random frame t=   0.00000 step= 2
C         10.59000       13.42000        0.15000
C          7.67000        1.34000        8.35000
C         13.74000       11.78000       18.61000
C         16.92000       10.54000        1.84000
C         13.08000        8.32000       14.02000
5
Random frame t=   0.00000 step= 3
C         18.21000       15.24000        5.25000
C          0.95000       14.72000        6.56000
C         12.65000       15.13000       19.82000
C          7.31000        4.94000       19.65000
C         14.45000       15.07000       13.03000
5
Random frame t=   0.00000 step= 4
C          1.45000       12.63000       17.69000
C          5.45000        8.73000       15.33000
C          9.55000        4.76000        5.50000
C          7.19000        3.33000        9.73000
C         17.95000       18.18000        1.21000
5
Random frame t=   0.00000 step= 5
C         18.09000       10.09000       10.33000
C          6.38000       19.73000        9.88000
C          5.32000        1.81000       18.96000
C          1.47000       10.01000        7.68000
C          5.54000       18.28000       10.59000
5
Random frame t=   0.00000 step= 6
C          9.29000       18.82000        1.00000
C         15.23000       15.40000       16.56000
C          2.51000        0.32000       13.77000
C         17.36000       12.59000       14.72000
C         14.51000       19.99000       17.77000
5
Random frame t=   0.00000 step= 7
C          4.66000        6.13000        7.02000
C         10.27000       11.82000       16.92000
C          8.24000       16.83000        5.39000
C          8.31000       10.75000        9.36000
C          5.74000        3.57000        3.07000
5
Random frame t=   0.00000 step= 8
C         11.43000       16.05000        0.66000
C         10.69000        9.97000       19.11000
C         14.97000       11.09000       17.81000
C         12.50000       16.84000        3.20000
C          4.26000       14.29000        2.61000
5
Random frame t=   0.00000 step= 9
C          1.82000        5.49000        0.06000
C          8.29000        0.54000       14.20000
C         18.76000        4.80000        3.62000
C          6.35000       17.74000       13.04000
C          3.01000       13.63000        7.72000
5
Random frame t=   0.00000 step= 10
C          7.75000        9.99000        2.95000
C         11.74000       16.91000       11.80000
C         19.11000       11.12000        2.96000
C         19.67000        8.18000        2.84000
C         11.30000        5.04000        9.77000
